LAMMPS data file via write_data, version 19 Nov 2024, timestep = 100000, units = metal

1000 atoms
2 atom types

0 27.21851185 xlo xhi
0 27.21851185 ylo yhi
0 80 zlo zhi

Masses

1 28.085
2 39.948

Atoms # charge

1 1 0 0 0 0 0 0 0
2 1 0 1.3609255925 1.3609255925 1.3609255925 0 0 0
8 1 0 2.721851185 2.721851185 0 0 0 0
276 1 0 10.275262822110163 6.412512680939249 25.502088488506594 0 0 0
7 1 0 2.7730713202065367 0.05057844044886316 2.712696062271691 0 0 0
201 1 0 5.44370237 0 0 0 0 0
203 1 0 5.382701699793312 2.6945179220056343 2.773044480586592 0 0 0
202 1 0 6.8046279625 1.3609255925 1.3609255925 0 0 0
208 1 0 8.165553555 2.721851185 0 0 0 0
401 1 0 10.88740474 0 0 0 0 0
402 1 0 12.2483303325 1.3609255925 1.3609255925 0 0 0
403 1 0 10.94358524450325 2.7752197123467135 2.7507199822808137 0 0 0
41 1 0 0 5.44370237 0 0 0 0
47 1 0 2.799113697214179 5.477433515096999 2.757537708055526 0 0 0
6 1 0 4.0827767775 4.0827767775 1.3609255925 0 0 0
241 1 0 5.44370237 5.44370237 0 0 0 0
206 1 0 9.5264791475 4.0827767775 1.3609255925 0 0 0
247 1 0 8.2180639198702 5.471670496991979 2.778501971382566 0 0 0
441 1 0 10.88740474 5.44370237 0 0 0 0
479 1 0 13.236459850237624 5.13657593909661 24.466815265170766 0 0 0
16 1 0 2.5294188252763425 2.7574983678397316 5.491460305473842 0 0 0
437 1 0 11.42783281057102 4.265428322549936 25.61681554402326 0 0 0
4 1 0 4.019102276474082 1.5235705689089807 4.180333013443979 0 0 0
440 1 0 13.458808583341904 2.525328924073983 21.74079846228931 0 0 0
204 1 0 9.501468075749049 1.380110273915286 4.127161040362487 0 0 0
216 1 0 7.998344670652263 2.711818677997911 5.27042978940749 0 0 0
210 1 0 6.786945105654607 1.3647363573697184 6.8066925766850455 0 0 0
5 1 0 1.3322436459886857 4.031702631792161 3.960200239311173 0 0 0
49 1 0 0.046144009458231064 5.517494336078598 5.394865218179645 0 0 0
249 1 0 5.3518187512473805 5.528172469827379 5.53311032058677 0 0 0
205 1 0 6.637763200902026 4.234751647531517 4.004877773557586 0 0 0
27 1 0 0.08971312258249142 2.8940164761893246 18.905167182340367 0 0 0
405 1 0 12.35795980338044 4.161283252356916 4.069365192136413 0 0 0
449 1 0 10.883802615626834 5.524182285900381 5.370573363193484 0 0 0
10 1 0 1.390701792210688 1.1979886783054245 6.887083112348779 0 0 0
455 1 0 13.56656551582677 5.520747148367398 7.982379677473731 0 0 0
12 1 0 4.060351206124806 1.2858895038305849 9.412199283383353 0 0 0
211 1 0 5.48171835438117 2.6130333894413247 8.252257534236994 0 0 0
212 1 0 9.78514479729737 1.628279205238581 9.36048110071602 0 0 0
215 1 0 8.308878657760307 0.08888741280993467 8.278275621474094 0 0 0
410 1 0 12.231731047256076 1.5061430523857355 6.759488420910803 0 0 0
411 1 0 10.91890027891305 3.0687480159952623 7.919118321838783 0 0 0
13 1 0 1.2432051618129318 4.015140728802422 9.51957838421281 0 0 0
55 1 0 2.6245757818350506 5.400596740334459 8.188850370921896 0 0 0
14 1 0 4.004001810969834 4.0076846837734506 6.900003330398214 0 0 0
37 1 0 0.3230309711313777 4.976945917362063 25.256424463535875 0 0 0
213 1 0 7.008626508357276 3.9281409992525513 9.43318001898117 0 0 0
214 1 0 9.312417983583352 4.243087076632092 6.549150953926095 0 0 0
255 1 0 8.111503914357279 5.586673396866147 8.09329526425274 0 0 0
435 1 0 10.785358862364948 2.9008393513847928 23.77749302334621 0 0 0
413 1 0 12.197951456614366 4.310662008177734 9.436889167476426 0 0 0
18 1 0 1.5268285042675767 1.1820512922813757 12.046537099791843 0 0 0
24 1 0 2.6449317231022693 2.65714623149598 10.717685209088005 0 0 0
239 1 0 8.3120365599697 0.3396344084568761 24.335012466578203 0 0 0
218 1 0 6.923485910140302 1.2941164629499922 12.057304760894594 0 0 0
224 1 0 8.401941099938277 2.6291028743330713 10.889418947562065 0 0 0
418 1 0 12.332068643264915 1.3879683185482212 12.071767681551036 0 0 0
417 1 0 11.012972930046521 0.11680396681841902 10.66991498773966 0 0 0
57 1 0 0.11417803402573497 5.5500029512391515 10.784567031611827 0 0 0
63 1 0 2.855996724430055 5.273362362559085 13.547570096646739 0 0 0
22 1 0 4.060833280080701 3.9684652334131587 12.104532383036227 0 0 0
257 1 0 5.584905044756078 5.338819871382071 10.823732140746293 0 0 0
236 1 0 9.375230832722966 2.1524655974619558 25.43979762330072 0 0 0
222 1 0 9.744315807083968 4.2200638338513095 12.088943348689382 0 0 0
457 1 0 10.993551402460435 5.781949547255875 10.790177122655063 0 0 0
36 1 0 4.515488261852656 1.050011586813733 25.246516552523254 0 0 0
19 1 0 0.14352548901941684 2.6687130440060844 13.489968654303432 0 0 0
235 1 0 5.596123079976864 2.7923570468224272 24.074698177533406 0 0 0
32 1 0 2.8287598962168437 2.7384325018450664 16.165803481424955 0 0 0
219 1 0 5.538141674064505 2.7058389984802544 13.381837238566673 0 0 0
20 1 0 4.081041149545733 1.3272642695678756 14.733447931798741 0 0 0
225 1 0 5.448907882055297 0.0187419224310348 16.068175976242706 0 0 0
220 1 0 9.48247397067658 1.4846030412886726 14.843537654727866 0 0 0
232 1 0 8.120301977024347 2.8075432448059043 16.226411371863165 0 0 0
419 1 0 10.9454729208627 2.6720919788076687 13.430090017539284 0 0 0
279 1 0 8.17092476689496 5.958731216760591 24.52118148580667 0 0 0
237 1 0 7.647899174558115 3.7241960799895493 24.901642848207565 0 0 0
21 1 0 1.3385471640003657 4.009738197858972 14.959454004076754 0 0 0
265 1 0 5.441527924232242 5.490239129661162 16.26367569115372 0 0 0
221 1 0 6.724175294586293 4.091332520930582 14.919572704862192 0 0 0
263 1 0 8.16308581820114 5.2661480090264625 13.550781864373567 0 0 0
463 1 0 13.526744837257118 5.482811831069032 13.607342440320076 0 0 0
421 1 0 12.282392703977706 3.9398666679473022 14.968442642437592 0 0 0
465 1 0 11.03712084315188 5.318037930874177 16.28091440576217 0 0 0
26 1 0 1.607781014429018 1.4844642744586385 17.59239975405777 0 0 0
31 1 0 2.7468145813588096 0.07503008047407946 19.06073788760259 0 0 0
227 1 0 5.46541717231355 2.8029791985792505 18.901431904700758 0 0 0
226 1 0 6.687063128756384 1.358917838082559 17.540354142414092 0 0 0
426 1 0 12.492259122759156 1.104178087463333 17.54783845490313 0 0 0
427 1 0 11.18107685069896 2.5896204094863045 18.851629199594882 0 0 0
71 1 0 2.8470550612758845 5.489390509646089 18.846756672791006 0 0 0
30 1 0 4.1157880189849445 4.092049302100404 17.502299964111725 0 0 0
230 1 0 9.64254323222146 3.9253983603734937 17.64527049273067 0 0 0
271 1 0 8.348324711218543 5.5516205692556895 18.893511834158666 0 0 0
466 1 0 12.218191519629755 6.780339174639927 17.588076815531654 0 0 0
33 1 0 0.12875029762188522 0.4994239744048015 21.496029604000356 0 0 0
34 1 0 1.5141727118389299 1.860011671499251 22.855258935837835 0 0 0
40 1 0 2.9223952444452497 3.0765691639420805 21.488190474604895 0 0 0
28 1 0 4.133176909914273 1.4577904258432346 20.428385111308188 0 0 0
39 1 0 2.811086662515671 0.12530143706072933 23.89736221899755 0 0 0
234 1 0 7.044191390616044 1.359431029363233 22.839364700816926 0 0 0
228 1 0 9.75995505925587 1.361853072416428 20.31805121197511 0 0 0
240 1 0 8.138004440099621 2.7915441040643936 21.352347752064073 0 0 0
434 1 0 12.295065724444736 1.1070287103554999 23.167231152771325 0 0 0
79 1 0 2.327917096594003 5.695795033650055 24.306238842809375 0 0 0
29 1 0 1.4102932660571292 4.390552265160224 20.291339475688304 0 0 0
38 1 0 4.114983854955449 4.478098071799478 23.173861650810352 0 0 0
273 1 0 5.516381460107749 5.669420108133452 21.69178161400649 0 0 0
229 1 0 6.798497048564897 4.293529432017801 20.168863122925245 0 0 0
429 1 0 12.439253317670108 4.076703198093361 20.157968580740317 0 0 0
238 1 0 9.178763084093882 4.3351866565200385 22.978020909672317 0 0 0
473 1 0 10.637799364282346 4.988234812400168 21.300944645412702 0 0 0
474 1 0 12.248830852992235 6.195459909026564 22.56182867548053 0 0 0
50 1 0 1.5756128199702844 6.707169277511897 6.649716578973303 0 0 0
52 1 0 4.095859223559518 6.682680182215075 9.60413763264507 0 0 0
58 1 0 1.4889254095037985 6.70938973786086 12.313068053139263 0 0 0
60 1 0 4.203320040160994 6.779820039871554 14.71410717333758 0 0 0
260 1 0 9.596150542056023 6.462277182402557 14.836013950470841 0 0 0
266 1 0 6.859702279549783 6.784382861630748 17.63511603592121 0 0 0
74 1 0 1.311593168325179 6.731288259952545 22.51486601092996 0 0 0
207 1 0 8.213560267504763 0.0316014668633855 2.7668548021379413 0 0 0
423 1 0 13.533398795005056 0.010457878702670342 13.458912040541259 0 0 0
409 1 0 10.951305485580704 0.11811069510621763 5.434188357545733 0 0 0
223 1 0 8.267086079854813 0.025012562797847693 13.49559367261511 0 0 0
425 1 0 11.088521501871922 0.10091007640286165 15.919680872506037 0 0 0
231 1 0 8.462546890358006 0.29013934542097175 18.683518244586644 0 0 0
42 1 0 1.3609255925 6.8046279625 1.3609255925 0 0 0
48 1 0 2.721851185 8.165553555 0 0 0 0
43 1 0 0.05253159876594452 8.254900674761872 2.7664582140112124 0 0 0
46 1 0 4.0827767775 9.5264791475 1.3609255925 0 0 0
243 1 0 5.61474038583471 8.289437041649222 2.7319832628601812 0 0 0
242 1 0 6.8046279625 6.8046279625 1.3609255925 0 0 0
246 1 0 9.5264791475 9.5264791475 1.3609255925 0 0 0
248 1 0 8.165553555 8.165553555 0 0 0 0
442 1 0 12.2483303325 6.8046279625 1.3609255925 0 0 0
443 1 0 10.97617921308157 8.23692297787208 2.727224074209389 0 0 0
81 1 0 0 10.88740474 0 0 0 0
82 1 0 1.3609255925 12.2483303325 1.3609255925 0 0 0
87 1 0 2.600995819453236 10.838308481611426 2.6384804737315943 0 0 0
314 1 0 7.218963934695098 12.064525459971083 23.245381274934456 0 0 0
281 1 0 5.44370237 10.88740474 0 0 0 0
282 1 0 6.8046279625 12.2483303325 1.3609255925 0 0 0
287 1 0 8.223094416702118 10.958324555946575 2.7088543827816123 0 0 0
481 1 0 10.88740474 10.88740474 0 0 0 0
482 1 0 12.2483303325 12.2483303325 1.3609255925 0 0 0
316 1 0 8.55033197352535 12.980349178813702 25.052989387305804 0 0 0
519 1 0 13.427434666855607 10.272858028265915 24.44537875265817 0 0 0
45 1 0 1.369565620355828 9.568123610769364 4.108160773537365 0 0 0
56 1 0 2.8769058469032514 8.342856485428628 5.3939562588388945 0 0 0
44 1 0 4.169500561505289 6.947883981066899 3.9776929583362777 0 0 0
245 1 0 6.883206151546099 9.587453651338237 4.1694962876305475 0 0 0
256 1 0 8.338582761385641 8.287307147192976 5.528399625821812 0 0 0
445 1 0 12.332164771153932 9.716027484102385 4.034535343351084 0 0 0
84 1 0 4.1706839246534955 12.1799995516789 3.956951877141962 0 0 0
289 1 0 5.536974758307429 11.019333479876428 5.638751223719395 0 0 0
284 1 0 9.595241688192006 12.34259523630655 4.007525019293556 0 0 0
480 1 0 13.521375236525923 7.6849382756807865 21.249526569156853 0 0 0
489 1 0 11.027128785096235 11.009815372277206 5.349123084072257 0 0 0
53 1 0 1.2899285065858712 9.316565430754409 9.559358606784427 0 0 0
91 1 0 0.1545726122746771 13.576847382190609 8.150550040439258 0 0 0
54 1 0 4.1444819903760335 9.585430320814961 6.877619202674382 0 0 0
251 1 0 5.484617296843845 8.118202458426563 8.235875205550041 0 0 0
495 1 0 13.553179665045743 11.129484138174885 8.295143369342934 0 0 0
253 1 0 6.811257812009457 9.725994928637839 9.42383299557891 0 0 0
254 1 0 9.618155672610808 9.82419979491237 6.753240758972839 0 0 0
451 1 0 10.993792247546628 8.3812630658373 8.087153265915974 0 0 0
453 1 0 12.301943753303835 9.592447626278393 9.593897328488898 0 0 0
450 1 0 12.23278024689394 6.902032937738272 6.593729716495563 0 0 0
90 1 0 1.5636094858649148 12.228585055323792 6.824158224152053 0 0 0
95 1 0 2.574875430006406 10.679637767918662 8.314970228269186 0 0 0
92 1 0 3.966305001135839 12.15362549682067 9.542407967089716 0 0 0
290 1 0 6.977409869175643 12.407376797919193 6.792389634009204 0 0 0
292 1 0 9.773555009079283 12.395373872294044 9.775854967921502 0 0 0
295 1 0 8.43629415377217 11.165003477875775 8.238881275809344 0 0 0
490 1 0 12.396615996140365 12.31020430649313 6.705982665773026 0 0 0
64 1 0 2.868573586249256 8.16760962355265 10.847434923533665 0 0 0
51 1 0 0.07837647395374248 8.055942819969673 7.95833764499409 0 0 0
62 1 0 4.180609608497987 9.637084956706627 12.225803582623966 0 0 0
259 1 0 5.5784193415002825 8.268741276802592 13.529331520434488 0 0 0
262 1 0 9.713213602693912 9.499970822302492 12.251017429479385 0 0 0
264 1 0 8.114674192363559 8.371354049747202 10.789864007370435 0 0 0
319 1 0 8.243172507389492 10.688322903462648 25.208402578929064 0 0 0
98 1 0 1.260151716957165 12.234701479355536 12.043630385347031 0 0 0
297 1 0 5.519706488154321 10.960295914999092 10.897833672263593 0 0 0
298 1 0 6.92281167059847 12.353435261643293 12.339022004260448 0 0 0
89 1 0 0.1644281865033399 10.986983701218751 5.528014056329291 0 0 0
497 1 0 11.076754626880374 10.905690006760796 11.039147248968746 0 0 0
498 1 0 12.314303675110711 12.196184147424908 12.530545423785915 0 0 0
59 1 0 0.02564756119345543 8.19691592072295 13.412084326055753 0 0 0
61 1 0 1.3409501746086607 9.463292427378414 14.73318734234928 0 0 0
72 1 0 2.901988654369163 8.259583849583493 16.057694807886715 0 0 0
477 1 0 12.273366423066667 8.487894163999112 25.595252324148046 0 0 0
261 1 0 7.033880331932656 9.41324787339119 14.866880488708109 0 0 0
272 1 0 8.4109030283293 7.968549487900105 16.19894203925774 0 0 0
475 1 0 10.977994052975177 7.797964281602204 23.848388345557513 0 0 0
472 1 0 13.56057052386177 8.190183492825838 16.340337064455095 0 0 0
459 1 0 10.820448041336517 8.085367858865597 13.748478160611265 0 0 0
461 1 0 12.222617296561799 9.604326853729102 15.028562490279652 0 0 0
105 1 0 0.04311112214967461 10.852327451886037 16.21018801672984 0 0 0
103 1 0 2.601301328486636 10.801686745084698 13.342973041002407 0 0 0
100 1 0 4.070158281837864 11.928137524833664 14.810680585440453 0 0 0
305 1 0 5.63003802726301 10.790311448758068 16.253154319118902 0 0 0
303 1 0 8.383782413432177 10.990057333108489 13.555301630684525 0 0 0
300 1 0 9.471730203463071 12.463592858239522 15.082208932399945 0 0 0
116 1 0 4.124775926210741 12.62375625012024 25.414197057454256 0 0 0
505 1 0 10.885760397398153 11.053558487679704 16.29680151886434 0 0 0
67 1 0 0.193559582048278 8.008602724625845 18.747630813176425 0 0 0
66 1 0 1.5555441755940542 6.8091546423550255 17.270497932703627 0 0 0
70 1 0 4.096901354904505 9.53548913485705 17.57020223200161 0 0 0
267 1 0 5.599719086723189 8.310727924464029 18.840578287614978 0 0 0
275 1 0 5.315621246631524 8.69105286182174 24.554654637724205 0 0 0
270 1 0 9.575586995225667 9.557516805975546 17.48683031667484 0 0 0
467 1 0 10.87023165674291 8.280244090409846 18.913066332206025 0 0 0
106 1 0 1.6375080293003976 12.162925723574183 17.481040806622218 0 0 0
111 1 0 2.9417242246858155 10.917332652705758 19.017085763070465 0 0 0
306 1 0 6.779571931141126 12.299652626314144 17.7312220674264 0 0 0
311 1 0 8.327940554765565 10.996866673578802 18.915892727022797 0 0 0
277 1 0 5.898834871130178 10.911124294373248 25.231386861082512 0 0 0
506 1 0 12.263354550100953 12.246000089706637 17.879840713015813 0 0 0
69 1 0 1.532449716188931 9.473022399899781 19.967064417489055 0 0 0
80 1 0 2.8388093682584716 8.183311210252322 21.480981402055345 0 0 0
77 1 0 1.4181800284606063 9.583658854128402 25.095797353792996 0 0 0
78 1 0 4.257892725952944 9.68401947495184 22.71902907383307 0 0 0
269 1 0 7.000877495071481 9.587583041396604 20.307488251378334 0 0 0
278 1 0 9.258355384948276 9.542661247331683 23.28214483210866 0 0 0
280 1 0 8.154827864927757 8.18839873303375 21.71703499655849 0 0 0
274 1 0 6.550472535808524 7.158852214984848 23.17435313356019 0 0 0
268 1 0 9.719559271279628 6.884479091199831 20.36538456539219 0 0 0
469 1 0 12.23112680997416 9.51837372247537 20.430721365126917 0 0 0
113 1 0 0.12762986132384557 10.724829646915987 21.277645890693126 0 0 0
114 1 0 1.2411519638337885 12.179198597444467 22.701032020750052 0 0 0
108 1 0 4.3232738244555735 12.347888386587051 20.260449577594887 0 0 0
313 1 0 5.777463945463171 11.092973526989317 21.57306859734316 0 0 0
308 1 0 9.540293230178841 12.374472367794093 20.349600589199976 0 0 0
514 1 0 12.121750099238394 11.940834454821218 23.271414536991745 0 0 0
513 1 0 10.675581664963556 10.735490622341029 21.761342716228217 0 0 0
119 1 0 2.8373602222315055 11.145494492590942 23.97626812900101 0 0 0
76 1 0 3.0905048251165352 7.883834227087716 24.998733280949622 0 0 0
96 1 0 2.931756365247577 13.603415735472243 5.307585857963049 0 0 0
291 1 0 5.4333678557880045 13.542271677278482 8.31007669740469 0 0 0
491 1 0 11.246706946489128 13.583906105593593 8.320072615885076 0 0 0
515 1 0 10.770956213040984 13.444876610962629 24.45021756817695 0 0 0
299 1 0 5.4681249616196705 13.503564547642116 13.760178763806085 0 0 0
112 1 0 2.898181423501231 13.576074117796068 15.976528724526364 0 0 0
115 1 0 0.18156705917588797 13.498426470068873 24.3425812472235 0 0 0
512 1 0 13.51547959029824 13.516344249135338 16.392510380828313 0 0 0
120 1 0 2.736957990619762 13.548516108932063 21.541275756052933 0 0 0
244 1 0 9.548690761136582 6.835634679575076 4.101590278140753 0 0 0
250 1 0 6.7987498115067435 6.937138319171486 6.665886938908483 0 0 0
252 1 0 9.458156064226607 7.01669622474846 9.379620021707959 0 0 0
258 1 0 6.913726357221698 6.894021659883886 12.107284255051097 0 0 0
458 1 0 12.37818561989661 7.026173757939657 12.269799812604287 0 0 0
68 1 0 4.272678429020865 6.887092642907913 20.054766792046426 0 0 0
88 1 0 2.721851185 13.609255925 0 0 0 0
121 1 0 0 16.33110711 0 0 0 0
127 1 0 2.615268404744852 16.268643877238485 2.77492691360819 0 0 0
86 1 0 4.0827767775 14.9701815175 1.3609255925 0 0 0
321 1 0 5.44370237 16.33110711 0 0 0 0
283 1 0 5.489950522158113 13.695582560552271 2.7161495757255345 0 0 0
286 1 0 9.5264791475 14.9701815175 1.3609255925 0 0 0
288 1 0 8.165553555 13.609255925 0 0 0 0
327 1 0 8.125488842781722 16.249066004984492 2.768488511231967 0 0 0
521 1 0 10.88740474 16.33110711 0 0 0 0
555 1 0 10.52974598866595 19.385215931465492 23.949812626777653 0 0 0
122 1 0 1.3609255925 17.6920327025 1.3609255925 0 0 0
128 1 0 2.721851185 19.052958295 0 0 0 0
357 1 0 6.758167469976838 19.694375256841287 25.43073754529068 0 0 0
323 1 0 5.372118037646383 19.031163239282574 2.6804423099621646 0 0 0
322 1 0 6.8046279625 17.6920327025 1.3609255925 0 0 0
328 1 0 8.165553555 19.052958295 0 0 0 0
522 1 0 12.2483303325 17.6920327025 1.3609255925 0 0 0
523 1 0 10.806689932245282 18.942783217434048 2.842858868878666 0 0 0
85 1 0 1.2778154917819815 14.785522731127745 4.111237556467457 0 0 0
356 1 0 8.53291854951633 18.26220657363749 24.742114413073047 0 0 0
153 1 0 0.2926397276662662 16.485107597265387 21.866729772982865 0 0 0
329 1 0 5.42518046937252 16.336661101000978 5.537742214849867 0 0 0
285 1 0 6.755501021134596 14.978798123100253 4.244480147691746 0 0 0
156 1 0 4.946429563297628 17.46232722223667 25.379055873224495 0 0 0
485 1 0 12.450618887040596 14.98861731368765 4.067731014185503 0 0 0
529 1 0 10.942000072585767 16.23509321253629 5.380412560580206 0 0 0
136 1 0 2.858674595361889 18.88921614315728 5.50111009103237 0 0 0
124 1 0 4.147484701531513 17.540284005937696 4.040042338478137 0 0 0
325 1 0 6.7118448218039 20.29808321833739 4.08340399809371 0 0 0
324 1 0 9.458420780462507 17.57519611238385 4.232984865673731 0 0 0
336 1 0 8.073626713362215 19.046045148033574 5.532467091261638 0 0 0
107 1 0 0.2552298615314186 13.621964504339935 18.761415009462848 0 0 0
93 1 0 1.3192590222592568 14.942957151762911 9.565386316148288 0 0 0
135 1 0 2.8401036934200907 16.386948888156137 8.177792847300074 0 0 0
94 1 0 4.1913328922158035 14.93215155022433 6.893331381448571 0 0 0
536 1 0 13.490903024766462 19.123597213443144 5.353981697012095 0 0 0
293 1 0 6.971398554869649 15.02481365938033 9.50067539082257 0 0 0
294 1 0 9.860165448118893 14.85468867437169 6.9157841716269415 0 0 0
335 1 0 8.493421436530381 16.099260276829455 8.221837479930711 0 0 0
355 1 0 5.604895284593522 18.8915394075982 23.532256185790413 0 0 0
493 1 0 12.52480688158729 15.047360145741909 9.599413332540866 0 0 0
559 1 0 12.527191404715948 16.737574741433132 24.69359567651 0 0 0
130 1 0 1.4446772451068857 17.519959976231092 6.780850563781718 0 0 0
131 1 0 0.006939693582478555 18.88522543400565 8.116561091383238 0 0 0
132 1 0 4.169245772366402 17.674539432096807 9.610426795358437 0 0 0
331 1 0 5.496297462221563 19.025141015851396 8.232588000664599 0 0 0
333 1 0 6.850617678111862 20.24393877054896 9.685929849698848 0 0 0
330 1 0 6.916452919823506 17.429189155267274 6.946508861981648 0 0 0
332 1 0 9.65209305740588 17.70443410267618 9.585670403707288 0 0 0
359 1 0 8.769683628457882 16.02292127443924 25.44569941858246 0 0 0
530 1 0 12.284320878207124 17.583894405629746 6.690391285108662 0 0 0
531 1 0 10.735880573180284 18.899454278901867 7.921878183322044 0 0 0
517 1 0 10.99025892010352 15.33729963067135 25.83128452582023 0 0 0
104 1 0 2.8003918796248333 13.71299528860772 10.89411960113298 0 0 0
102 1 0 4.459631106386221 15.043247299101923 12.15114065164817 0 0 0
337 1 0 5.700781474763764 16.479571908158324 10.888643434364365 0 0 0
315 1 0 5.55696402620196 13.836141402907652 23.90696801848056 0 0 0
302 1 0 9.799587288318603 15.14771654421278 12.23331922255753 0 0 0
537 1 0 11.259182292401416 16.456207358547786 10.83983867546793 0 0 0
138 1 0 1.3787598657516085 17.623365459401224 12.174182628205706 0 0 0
144 1 0 2.613676928576128 19.014929832019366 10.664006327599528 0 0 0
338 1 0 6.971014012877987 17.84485543776574 12.341929728722876 0 0 0
344 1 0 8.395759342474888 19.06201660414131 10.962052601718979 0 0 0
317 1 0 6.5395777320469675 15.820487010467236 24.86272243916833 0 0 0
538 1 0 12.54398296208448 17.856593755320908 12.32043187282952 0 0 0
145 1 0 0.19232065797052017 16.54598068687157 16.33453866071207 0 0 0
143 1 0 2.89767937675501 16.28440933474174 13.533052665713733 0 0 0
101 1 0 1.4396717551915919 15.07895299898024 14.907314080670211 0 0 0
99 1 0 0.10265595959604787 13.714756769524763 13.461444896818687 0 0 0
117 1 0 2.3466272386927773 14.247831262132847 25.139634607085167 0 0 0
345 1 0 5.577499381011818 16.324909689920922 16.44379052441186 0 0 0
301 1 0 6.896853775893815 15.179662442323258 14.783818325248614 0 0 0
343 1 0 8.459063455893414 16.485427176474072 13.552674772627624 0 0 0
312 1 0 8.094968660634558 13.832751164304991 16.405478287054844 0 0 0
159 1 0 3.0114347001434854 16.456378467480643 24.47544128330409 0 0 0
501 1 0 12.422192891329425 15.104332198299025 15.002673181775142 0 0 0
545 1 0 10.944001395694832 16.414593384869566 16.463205089757686 0 0 0
499 1 0 11.00200097031036 13.734708884213886 13.722022934666072 0 0 0
139 1 0 0.14152556569600963 19.046465094643978 13.571719124182833 0 0 0
152 1 0 2.9468970378460413 19.021126978153955 16.164178671251342 0 0 0
339 1 0 5.493840323763288 19.107395854744198 13.532601852800802 0 0 0
140 1 0 4.41173135086503 17.555200050200472 14.835784578240915 0 0 0
340 1 0 9.682701997399723 17.803209688759214 15.132916668543915 0 0 0
352 1 0 8.238690040350999 19.120086886457653 16.364110901156653 0 0 0
539 1 0 10.966282792198797 19.055518964247188 13.67979598362045 0 0 0
549 1 0 12.585961447002031 20.27096309325422 20.496087370847583 0 0 0
151 1 0 2.6691037060639915 16.35110627819111 18.848216469859853 0 0 0
110 1 0 3.9675659636127913 14.995569330638862 17.491123914138953 0 0 0
307 1 0 5.43567442090875 13.867354474188522 18.928677667661887 0 0 0
310 1 0 9.619945686581985 15.060999376650384 17.77231344216307 0 0 0
351 1 0 8.271922905514415 16.420115783748873 19.214847730647108 0 0 0
507 1 0 11.001776609461505 13.75175396005779 19.132359064283403 0 0 0
147 1 0 0.01187740350061185 19.12737606331554 19.059896098412818 0 0 0
146 1 0 1.368579262212722 17.974477352041227 17.582454311053333 0 0 0
347 1 0 5.556279263127937 19.09440040131806 18.89967600680272 0 0 0
554 1 0 12.193307846426668 18.179151722574183 22.845969883490305 0 0 0
346 1 0 6.980027892489422 17.6511793541316 17.77828618501053 0 0 0
546 1 0 12.455454055752625 17.513326843130088 17.79720778842342 0 0 0
547 1 0 11.143618382131338 19.077749573198542 19.02855697666498 0 0 0
109 1 0 1.4202920182813392 14.966525893149337 20.372054024609653 0 0 0
348 1 0 9.830711649381138 17.676629368540024 20.315593354014833 0 0 0
353 1 0 5.44254424165047 16.40279529447886 21.51506426505227 0 0 0
118 1 0 4.026961344588506 15.104759730593422 22.82894533741509 0 0 0
309 1 0 6.895731012418322 14.929887527762702 20.412481525740905 0 0 0
318 1 0 9.69419191833528 15.269417815885529 23.281003105027214 0 0 0
320 1 0 8.361592487435313 13.686088377985142 21.830147081100588 0 0 0
553 1 0 11.103434494987157 16.375063767191794 21.850323329563906 0 0 0
509 1 0 12.426616305525476 14.874842145721537 20.653052612257483 0 0 0
154 1 0 1.460215218818195 17.843844964859098 23.31544098337091 0 0 0
160 1 0 2.9015085163739776 19.08203534858797 21.73051888855221 0 0 0
148 1 0 4.029537471157689 17.6872896389404 20.212851888524053 0 0 0
354 1 0 7.081483316978674 17.286811565241745 23.063644085158653 0 0 0
360 1 0 8.130434950804286 18.8237068412191 21.449311393957576 0 0 0
125 1 0 1.3809674355556518 20.226990659274243 4.240532161492232 0 0 0
134 1 0 4.260409844034345 20.344912292030852 6.717854472503666 0 0 0
533 1 0 12.002682284354224 20.36707376963159 9.276110443231964 0 0 0
142 1 0 3.8738318375980945 20.25634500348624 12.138730409253538 0 0 0
149 1 0 1.5671426769885226 20.35698282230171 20.352251564440465 0 0 0
350 1 0 9.724869471508077 20.345106992037753 17.691014218496658 0 0 0
349 1 0 6.818193068429717 20.35815898269786 20.3673739467453 0 0 0
483 1 0 10.991613123934151 13.694155300758322 2.724970644495564 0 0 0
296 1 0 8.346962289413351 13.794445604505807 5.423178103077352 0 0 0
304 1 0 8.28443298416437 13.752407073181221 11.057377446790804 0 0 0
161 1 0 0 21.77480948 0 0 0 0
162 1 0 1.3609255925 23.1357350725 1.3609255925 0 0 0
167 1 0 2.633087191273557 21.70796212672939 2.7608885193013823 0 0 0
126 1 0 4.0827767775 20.4138838875 1.3609255925 0 0 0
361 1 0 5.44370237 21.77480948 0 0 0 0
326 1 0 9.5264791475 20.4138838875 1.3609255925 0 0 0
362 1 0 6.8046279625 23.1357350725 1.3609255925 0 0 0
367 1 0 8.16325350774738 21.7183159816883 2.886162772610589 0 0 0
561 1 0 10.88740474 21.77480948 0 0 0 0
562 1 0 12.2483303325 23.1357350725 1.3609255925 0 0 0
595 1 0 10.713734444780192 24.60735113881734 24.424969847781934 0 0 0
168 1 0 2.721851185 24.496660665 0 0 0 0
163 1 0 0.05335414748766401 24.551824122312325 2.7131073790200633 0 0 0
166 1 0 4.0827767775 25.8575862575 1.3609255925 0 0 0
363 1 0 5.579551773858479 24.615858512457866 2.7042265589337027 0 0 0
366 1 0 9.5264791475 25.8575862575 1.3609255925 0 0 0
368 1 0 8.165553555 24.496660665 0 0 0 0
584 1 0 13.542340648399987 24.63046287201819 10.774256436663673 0 0 0
563 1 0 10.813952107030742 24.44744796753703 2.7514552151913616 0 0 0
169 1 0 0.03964094704270126 21.871618051599324 5.31653265360827 0 0 0
575 1 0 13.507300380196337 21.76589549770161 8.15844449972489 0 0 0
170 1 0 1.3873437581962442 23.019661796599383 6.769614716488063 0 0 0
164 1 0 4.300141803998281 23.06088840925682 3.896915117504057 0 0 0
369 1 0 5.5269372798221665 21.76615035453395 5.330845670842063 0 0 0
364 1 0 9.55828431531319 23.01721787743133 4.226591306333897 0 0 0
569 1 0 10.932035131549851 21.604457612094045 5.554458002377869 0 0 0
165 1 0 1.3917401829964726 25.922533243339238 4.140666182628146 0 0 0
176 1 0 2.755151514570026 24.162654356795393 5.274570703642212 0 0 0
365 1 0 6.848178719994184 25.986199210248838 4.101325594846603 0 0 0
376 1 0 8.068809655848709 24.495647750693806 5.423962783693835 0 0 0
576 1 0 13.469951751370344 24.381820679160764 5.42646280389152 0 0 0
565 1 0 12.06616612611875 25.833474961661445 4.123704995146605 0 0 0
395 1 0 5.3776899794063695 24.85380035086929 24.479330968347117 0 0 0
175 1 0 2.779259706609608 21.61170430512209 8.04732131577127 0 0 0
133 1 0 1.2107215058425687 20.557267141422624 9.468234328802835 0 0 0
172 1 0 4.071332716253948 23.10050885445289 9.353027259469634 0 0 0
195 1 0 0.17320089410462458 24.712616340805226 23.99342394418176 0 0 0
370 1 0 6.891879966312156 23.08600356755952 6.828529219017049 0 0 0
372 1 0 9.585329322092582 23.2460608384749 9.445104003723499 0 0 0
375 1 0 8.091516800004875 21.757464809775744 8.502613792527859 0 0 0
570 1 0 12.224653935626378 23.01316363266107 6.84538258235669 0 0 0
197 1 0 1.2884305680922108 26.286119609785917 25.274000046975793 0 0 0
173 1 0 1.2416041692788928 25.8169342990119 9.359363627877817 0 0 0
174 1 0 3.8825708385040034 25.6682591477101 6.588770992170465 0 0 0
371 1 0 5.3638103692858365 24.376418296457654 7.937879833697872 0 0 0
373 1 0 6.7798254136964395 25.864062287239353 9.319845335977082 0 0 0
374 1 0 9.434616975954626 25.90735182504736 6.78300779146409 0 0 0
571 1 0 10.845391353364985 24.614802668925275 8.089159149387415 0 0 0
573 1 0 12.321537569741219 25.915863993343073 9.29141299528524 0 0 0
178 1 0 1.2400996837978522 23.21980059559935 11.986454066931335 0 0 0
597 1 0 12.792070469864587 25.440543288124648 25.286638681405297 0 0 0
377 1 0 5.341083235089617 21.66007190241519 10.86399274868565 0 0 0
196 1 0 3.0835787574691826 24.459070321286116 25.33526930889294 0 0 0
378 1 0 6.741667650457657 22.98835016145116 12.145442182308402 0 0 0
577 1 0 10.933754754397228 21.821020844017454 10.777182287065026 0 0 0
578 1 0 12.515144004362188 22.875256377301817 12.046935044251445 0 0 0
184 1 0 2.644545842689852 24.443400318378174 10.646022650183825 0 0 0
179 1 0 0.023331092199916047 24.44899998191482 13.512499082687551 0 0 0
182 1 0 4.166164571323277 25.770032598471545 12.054320790465283 0 0 0
217 1 0 5.44611734268776 27.198097093342653 10.781788564342438 0 -1 0
382 1 0 9.581705961537546 25.870712665425316 12.092293599780133 0 0 0
384 1 0 8.112167510404953 24.51095198940667 10.819257197863951 0 0 0
185 1 0 0.15746533638810184 21.719926821863524 16.074400352037085 0 0 0
183 1 0 2.778264312615299 21.93717220349147 13.294587255243986 0 0 0