(written by ASE)

1152 atoms
2 atom types

0.0 32.586 xlo xhi
0.0 32.586 ylo yhi
0.0 80.0 zlo zhi

Atoms # charge

1 1 0.0 0.000000 0.000000 0.000000
2 1 0.0 0.000000 2.715500 2.715500
3 1 0.0 2.715500 0.000000 2.715500
4 1 0.0 2.715500 2.715500 0.000000
5 1 0.0 1.357750 1.357750 1.357750
6 1 0.0 1.357750 4.073250 4.073250
7 1 0.0 4.073250 1.357750 4.073250
8 1 0.0 4.073250 4.073250 1.357750
9 1 0.0 0.000000 0.000000 5.431000
10 1 0.0 0.000000 2.715500 8.146500
11 1 0.0 2.715500 0.000000 8.146500
12 1 0.0 2.715500 2.715500 5.431000
13 1 0.0 1.357750 1.357750 6.788750
14 1 0.0 1.357750 4.073250 9.504250
15 1 0.0 4.073250 1.357750 9.504250
16 1 0.0 4.073250 4.073250 6.788750
17 1 0.0 0.000000 0.000000 10.862000
18 1 0.0 0.000000 2.715500 13.577500
19 1 0.0 2.715500 0.000000 13.577500
20 1 0.0 2.715500 2.715500 10.862000
21 1 0.0 1.357750 1.357750 12.219750
22 1 0.0 1.357750 4.073250 14.935250
23 1 0.0 4.073250 1.357750 14.935250
24 1 0.0 4.073250 4.073250 12.219750
25 1 0.0 0.000000 0.000000 16.293000
26 1 0.0 0.000000 2.715500 19.008500
27 1 0.0 2.715500 0.000000 19.008500
28 1 0.0 2.715500 2.715500 16.293000
29 1 0.0 1.357750 1.357750 17.650750
30 1 0.0 1.357750 4.073250 20.366250
31 1 0.0 4.073250 1.357750 20.366250
32 1 0.0 4.073250 4.073250 17.650750
33 1 0.0 0.000000 5.431000 0.000000
34 1 0.0 0.000000 8.146500 2.715500
35 1 0.0 2.715500 5.431000 2.715500
36 1 0.0 2.715500 8.146500 0.000000
37 1 0.0 1.357750 6.788750 1.357750
38 1 0.0 1.357750 9.504250 4.073250
39 1 0.0 4.073250 6.788750 4.073250
40 1 0.0 4.073250 9.504250 1.357750
41 1 0.0 0.000000 5.431000 5.431000
42 1 0.0 0.000000 8.146500 8.146500
43 1 0.0 2.715500 5.431000 8.146500
44 1 0.0 2.715500 8.146500 5.431000
45 1 0.0 1.357750 6.788750 6.788750
46 1 0.0 1.357750 9.504250 9.504250
47 1 0.0 4.073250 6.788750 9.504250
48 1 0.0 4.073250 9.504250 6.788750
49 1 0.0 0.000000 5.431000 10.862000
50 1 0.0 0.000000 8.146500 13.577500
51 1 0.0 2.715500 5.431000 13.577500
52 1 0.0 2.715500 8.146500 10.862000
53 1 0.0 1.357750 6.788750 12.219750
54 1 0.0 1.357750 9.504250 14.935250
55 1 0.0 4.073250 6.788750 14.935250
56 1 0.0 4.073250 9.504250 12.219750
57 1 0.0 0.000000 5.431000 16.293000
58 1 0.0 0.000000 8.146500 19.008500
59 1 0.0 2.715500 5.431000 19.008500
60 1 0.0 2.715500 8.146500 16.293000
61 1 0.0 1.357750 6.788750 17.650750
62 1 0.0 1.357750 9.504250 20.366250
63 1 0.0 4.073250 6.788750 20.366250
64 1 0.0 4.073250 9.504250 17.650750
65 1 0.0 0.000000 10.862000 0.000000
66 1 0.0 0.000000 13.577500 2.715500
67 1 0.0 2.715500 10.862000 2.715500
68 1 0.0 2.715500 13.577500 0.000000
69 1 0.0 1.357750 12.219750 1.357750
70 1 0.0 1.357750 14.935250 4.073250
71 1 0.0 4.073250 12.219750 4.073250
72 1 0.0 4.073250 14.935250 1.357750
73 1 0.0 0.000000 10.862000 5.431000
74 1 0.0 0.000000 13.577500 8.146500
75 1 0.0 2.715500 10.862000 8.146500
76 1 0.0 2.715500 13.577500 5.431000
77 1 0.0 1.357750 12.219750 6.788750
78 1 0.0 1.357750 14.935250 9.504250
79 1 0.0 4.073250 12.219750 9.504250
80 1 0.0 4.073250 14.935250 6.788750
81 1 0.0 0.000000 10.862000 10.862000
82 1 0.0 0.000000 13.577500 13.577500
83 1 0.0 2.715500 10.862000 13.577500
84 1 0.0 2.715500 13.577500 10.862000
85 1 0.0 1.357750 12.219750 12.219750
86 1 0.0 1.357750 14.935250 14.935250
87 1 0.0 4.073250 12.219750 14.935250
88 1 0.0 4.073250 14.935250 12.219750
89 1 0.0 0.000000 10.862000 16.293000
90 1 0.0 0.000000 13.577500 19.008500
91 1 0.0 2.715500 10.862000 19.008500
92 1 0.0 2.715500 13.577500 16.293000
93 1 0.0 1.357750 12.219750 17.650750
94 1 0.0 1.357750 14.935250 20.366250
95 1 0.0 4.073250 12.219750 20.366250
96 1 0.0 4.073250 14.935250 17.650750
97 1 0.0 0.000000 16.293000 0.000000
98 1 0.0 0.000000 19.008500 2.715500
99 1 0.0 2.715500 16.293000 2.715500
100 1 0.0 2.715500 19.008500 0.000000
101 1 0.0 1.357750 17.650750 1.357750
102 1 0.0 1.357750 20.366250 4.073250
103 1 0.0 4.073250 17.650750 4.073250
104 1 0.0 4.073250 20.366250 1.357750
105 1 0.0 0.000000 16.293000 5.431000
106 1 0.0 0.000000 19.008500 8.146500
107 1 0.0 2.715500 16.293000 8.146500
108 1 0.0 2.715500 19.008500 5.431000
109 1 0.0 1.357750 17.650750 6.788750
110 1 0.0 1.357750 20.366250 9.504250
111 1 0.0 4.073250 17.650750 9.504250
112 1 0.0 4.073250 20.366250 6.788750
113 1 0.0 0.000000 16.293000 10.862000
114 1 0.0 0.000000 19.008500 13.577500
115 1 0.0 2.715500 16.293000 13.577500
116 1 0.0 2.715500 19.008500 10.862000
117 1 0.0 1.357750 17.650750 12.219750
118 1 0.0 1.357750 20.366250 14.935250
119 1 0.0 4.073250 17.650750 14.935250
120 1 0.0 4.073250 20.366250 12.219750
121 1 0.0 0.000000 16.293000 16.293000
122 1 0.0 0.000000 19.008500 19.008500
123 1 0.0 2.715500 16.293000 19.008500
124 1 0.0 2.715500 19.008500 16.293000
125 1 0.0 1.357750 17.650750 17.650750
126 1 0.0 1.357750 20.366250 20.366250
127 1 0.0 4.073250 17.650750 20.366250
128 1 0.0 4.073250 20.366250 17.650750
129 1 0.0 0.000000 21.724000 0.000000
130 1 0.0 0.000000 24.439500 2.715500
131 1 0.0 2.715500 21.724000 2.715500
132 1 0.0 2.715500 24.439500 0.000000
133 1 0.0 1.357750 23.081750 1.357750
134 1 0.0 1.357750 25.797250 4.073250
135 1 0.0 4.073250 23.081750 4.073250
136 1 0.0 4.073250 25.797250 1.357750
137 1 0.0 0.000000 21.724000 5.431000
138 1 0.0 0.000000 24.439500 8.146500
139 1 0.0 2.715500 21.724000 8.146500
140 1 0.0 2.715500 24.439500 5.431000
141 1 0.0 1.357750 23.081750 6.788750
142 1 0.0 1.357750 25.797250 9.504250
143 1 0.0 4.073250 23.081750 9.504250
144 1 0.0 4.073250 25.797250 6.788750
145 1 0.0 0.000000 21.724000 10.862000
146 1 0.0 0.000000 24.439500 13.577500
147 1 0.0 2.715500 21.724000 13.577500
148 1 0.0 2.715500 24.439500 10.862000
149 1 0.0 1.357750 23.081750 12.219750
150 1 0.0 1.357750 25.797250 14.935250
151 1 0.0 4.073250 23.081750 14.935250
152 1 0.0 4.073250 25.797250 12.219750
153 1 0.0 0.000000 21.724000 16.293000
154 1 0.0 0.000000 24.439500 19.008500
155 1 0.0 2.715500 21.724000 19.008500
156 1 0.0 2.715500 24.439500 16.293000
157 1 0.0 1.357750 23.081750 17.650750
158 1 0.0 1.357750 25.797250 20.366250
159 1 0.0 4.073250 23.081750 20.366250
160 1 0.0 4.073250 25.797250 17.650750
161 1 0.0 0.000000 27.155000 0.000000
162 1 0.0 0.000000 29.870500 2.715500
163 1 0.0 2.715500 27.155000 2.715500
164 1 0.0 2.715500 29.870500 0.000000
165 1 0.0 1.357750 28.512750 1.357750
166 1 0.0 1.357750 31.228250 4.073250
167 1 0.0 4.073250 28.512750 4.073250
168 1 0.0 4.073250 31.228250 1.357750
169 1 0.0 0.000000 27.155000 5.431000
170 1 0.0 0.000000 29.870500 8.146500
171 1 0.0 2.715500 27.155000 8.146500
172 1 0.0 2.715500 29.870500 5.431000
173 1 0.0 1.357750 28.512750 6.788750
174 1 0.0 1.357750 31.228250 9.504250
175 1 0.0 4.073250 28.512750 9.504250
176 1 0.0 4.073250 31.228250 6.788750
177 1 0.0 0.000000 27.155000 10.862000
178 1 0.0 0.000000 29.870500 13.577500
179 1 0.0 2.715500 27.155000 13.577500
180 1 0.0 2.715500 29.870500 10.862000
181 1 0.0 1.357750 28.512750 12.219750
182 1 0.0 1.357750 31.228250 14.935250
183 1 0.0 4.073250 28.512750 14.935250
184 1 0.0 4.073250 31.228250 12.219750
185 1 0.0 0.000000 27.155000 16.293000
186 1 0.0 0.000000 29.870500 19.008500
187 1 0.0 2.715500 27.155000 19.008500
188 1 0.0 2.715500 29.870500 16.293000
189 1 0.0 1.357750 28.512750 17.650750
190 1 0.0 1.357750 31.228250 20.366250
191 1 0.0 4.073250 28.512750 20.366250
192 1 0.0 4.073250 31.228250 17.650750
193 1 0.0 5.431000 0.000000 0.000000
194 1 0.0 5.431000 2.715500 2.715500
195 1 0.0 8.146500 0.000000 2.715500
196 1 0.0 8.146500 2.715500 0.000000
197 1 0.0 6.788750 1.357750 1.357750
198 1 0.0 6.788750 4.073250 4.073250
199 1 0.0 9.504250 1.357750 4.073250
200 1 0.0 9.504250 4.073250 1.357750
201 1 0.0 5.431000 0.000000 5.431000
202 1 0.0 5.431000 2.715500 8.146500
203 1 0.0 8.146500 0.000000 8.146500
204 1 0.0 8.146500 2.715500 5.431000
205 1 0.0 6.788750 1.357750 6.788750
206 1 0.0 6.788750 4.073250 9.504250
207 1 0.0 9.504250 1.357750 9.504250
208 1 0.0 9.504250 4.073250 6.788750
209 1 0.0 5.431000 0.000000 10.862000
210 1 0.0 5.431000 2.715500 13.577500
211 1 0.0 8.146500 0.000000 13.577500
212 1 0.0 8.146500 2.715500 10.862000
213 1 0.0 6.788750 1.357750 12.219750
214 1 0.0 6.788750 4.073250 14.935250
215 1 0.0 9.504250 1.357750 14.935250
216 1 0.0 9.504250 4.073250 12.219750
217 1 0.0 5.431000 0.000000 16.293000
218 1 0.0 5.431000 2.715500 19.008500
219 1 0.0 8.146500 0.000000 19.008500
220 1 0.0 8.146500 2.715500 16.293000
221 1 0.0 6.788750 1.357750 17.650750
222 1 0.0 6.788750 4.073250 20.366250
223 1 0.0 9.504250 1.357750 20.366250
224 1 0.0 9.504250 4.073250 17.650750
225 1 0.0 5.431000 5.431000 0.000000
226 1 0.0 5.431000 8.146500 2.715500
227 1 0.0 8.146500 5.431000 2.715500
228 1 0.0 8.146500 8.146500 0.000000
229 1 0.0 6.788750 6.788750 1.357750
230 1 0.0 6.788750 9.504250 4.073250
231 1 0.0 9.504250 6.788750 4.073250
232 1 0.0 9.504250 9.504250 1.357750
233 1 0.0 5.431000 5.431000 5.431000
234 1 0.0 5.431000 8.146500 8.146500
235 1 0.0 8.146500 5.431000 8.146500
236 1 0.0 8.146500 8.146500 5.431000
237 1 0.0 6.788750 6.788750 6.788750
238 1 0.0 6.788750 9.504250 9.504250
239 1 0.0 9.504250 6.788750 9.504250
240 1 0.0 9.504250 9.504250 6.788750
241 1 0.0 5.431000 5.431000 10.862000
242 1 0.0 5.431000 8.146500 13.577500
243 1 0.0 8.146500 5.431000 13.577500
244 1 0.0 8.146500 8.146500 10.862000
245 1 0.0 6.788750 6.788750 12.219750
246 1 0.0 6.788750 9.504250 14.935250
247 1 0.0 9.504250 6.788750 14.935250
248 1 0.0 9.504250 9.504250 12.219750
249 1 0.0 5.431000 5.431000 16.293000
250 1 0.0 5.431000 8.146500 19.008500
251 1 0.0 8.146500 5.431000 19.008500
252 1 0.0 8.146500 8.146500 16.293000
253 1 0.0 6.788750 6.788750 17.650750
254 1 0.0 6.788750 9.504250 20.366250
255 1 0.0 9.504250 6.788750 20.366250
256 1 0.0 9.504250 9.504250 17.650750
257 1 0.0 5.431000 10.862000 0.000000
258 1 0.0 5.431000 13.577500 2.715500
259 1 0.0 8.146500 10.862000 2.715500
260 1 0.0 8.146500 13.577500 0.000000
261 1 0.0 6.788750 12.219750 1.357750
262 1 0.0 6.788750 14.935250 4.073250
263 1 0.0 9.504250 12.219750 4.073250
264 1 0.0 9.504250 14.935250 1.357750
265 1 0.0 5.431000 10.862000 5.431000
266 1 0.0 5.431000 13.577500 8.146500
267 1 0.0 8.146500 10.862000 8.146500
268 1 0.0 8.146500 13.577500 5.431000
269 1 0.0 6.788750 12.219750 6.788750
270 1 0.0 6.788750 14.935250 9.504250
271 1 0.0 9.504250 12.219750 9.504250
272 1 0.0 9.504250 14.935250 6.788750
273 1 0.0 5.431000 10.862000 10.862000
274 1 0.0 5.431000 13.577500 13.577500
275 1 0.0 8.146500 10.862000 13.577500
276 1 0.0 8.146500 13.577500 10.862000
277 1 0.0 6.788750 12.219750 12.219750
278 1 0.0 6.788750 14.935250 14.935250
279 1 0.0 9.504250 12.219750 14.935250
280 1 0.0 9.504250 14.935250 12.219750
281 1 0.0 5.431000 10.862000 16.293000
282 1 0.0 5.431000 13.577500 19.008500
283 1 0.0 8.146500 10.862000 19.008500
284 1 0.0 8.146500 13.577500 16.293000
285 1 0.0 6.788750 12.219750 17.650750
286 1 0.0 6.788750 14.935250 20.366250
287 1 0.0 9.504250 12.219750 20.366250
288 1 0.0 9.504250 14.935250 17.650750
289 1 0.0 5.431000 16.293000 0.000000
290 1 0.0 5.431000 19.008500 2.715500
291 1 0.0 8.146500 16.293000 2.715500
292 1 0.0 8.146500 19.008500 0.000000
293 1 0.0 6.788750 17.650750 1.357750
294 1 0.0 6.788750 20.366250 4.073250
295 1 0.0 9.504250 17.650750 4.073250
296 1 0.0 9.504250 20.366250 1.357750
297 1 0.0 5.431000 16.293000 5.431000
298 1 0.0 5.431000 19.008500 8.146500
299 1 0.0 8.146500 16.293000 8.146500
300 1 0.0 8.146500 19.008500 5.431000
301 1 0.0 6.788750 17.650750 6.788750
302 1 0.0 6.788750 20.366250 9.504250
303 1 0.0 9.504250 17.650750 9.504250
304 1 0.0 9.504250 20.366250 6.788750
305 1 0.0 5.431000 16.293000 10.862000
306 1 0.0 5.431000 19.008500 13.577500
307 1 0.0 8.146500 16.293000 13.577500
308 1 0.0 8.146500 19.008500 10.862000
309 1 0.0 6.788750 17.650750 12.219750
310 1 0.0 6.788750 20.366250 14.935250
311 1 0.0 9.504250 17.650750 14.935250
312 1 0.0 9.504250 20.366250 12.219750
313 1 0.0 5.431000 16.293000 16.293000
314 1 0.0 5.431000 19.008500 19.008500
315 1 0.0 8.146500 16.293000 19.008500
316 1 0.0 8.146500 19.008500 16.293000
317 1 0.0 6.788750 17.650750 17.650750
318 1 0.0 6.788750 20.366250 20.366250
319 1 0.0 9.504250 17.650750 20.366250
320 1 0.0 9.504250 20.366250 17.650750
321 1 0.0 5.431000 21.724000 0.000000
322 1 0.0 5.431000 24.439500 2.715500
323 1 0.0 8.146500 21.724000 2.715500
324 1 0.0 8.146500 24.439500 0.000000
325 1 0.0 6.788750 23.081750 1.357750
326 1 0.0 6.788750 25.797250 4.073250
327 1 0.0 9.504250 23.081750 4.073250
328 1 0.0 9.504250 25.797250 1.357750
329 1 0.0 5.431000 21.724000 5.431000
330 1 0.0 5.431000 24.439500 8.146500
331 1 0.0 8.146500 21.724000 8.146500
332 1 0.0 8.146500 24.439500 5.431000
333 1 0.0 6.788750 23.081750 6.788750
334 1 0.0 6.788750 25.797250 9.504250
335 1 0.0 9.504250 23.081750 9.504250
336 1 0.0 9.504250 25.797250 6.788750
337 1 0.0 5.431000 21.724000 10.862000
338 1 0.0 5.431000 24.439500 13.577500
339 1 0.0 8.146500 21.724000 13.577500
340 1 0.0 8.146500 24.439500 10.862000
341 1 0.0 6.788750 23.081750 12.219750
342 1 0.0 6.788750 25.797250 14.935250
343 1 0.0 9.504250 23.081750 14.935250
344 1 0.0 9.504250 25.797250 12.219750
345 1 0.0 5.431000 21.724000 16.293000
346 1 0.0 5.431000 24.439500 19.008500
347 1 0.0 8.146500 21.724000 19.008500
348 1 0.0 8.146500 24.439500 16.293000
349 1 0.0 6.788750 23.081750 17.650750
350 1 0.0 6.788750 25.797250 20.366250
351 1 0.0 9.504250 23.081750 20.366250
352 1 0.0 9.504250 25.797250 17.650750
353 1 0.0 5.431000 27.155000 0.000000
354 1 0.0 5.431000 29.870500 2.715500
355 1 0.0 8.146500 27.155000 2.715500
356 1 0.0 8.146500 29.870500 0.000000
357 1 0.0 6.788750 28.512750 1.357750
358 1 0.0 6.788750 31.228250 4.073250
359 1 0.0 9.504250 28.512750 4.073250
360 1 0.0 9.504250 31.228250 1.357750
361 1 0.0 5.431000 27.155000 5.431000
362 1 0.0 5.431000 29.870500 8.146500
363 1 0.0 8.146500 27.155000 8.146500
364 1 0.0 8.146500 29.870500 5.431000
365 1 0.0 6.788750 28.512750 6.788750
366 1 0.0 6.788750 31.228250 9.504250
367 1 0.0 9.504250 28.512750 9.504250
368 1 0.0 9.504250 31.228250 6.788750
369 1 0.0 5.431000 27.155000 10.862000
370 1 0.0 5.431000 29.870500 13.577500
371 1 0.0 8.146500 27.155000 13.577500
372 1 0.0 8.146500 29.870500 10.862000
373 1 0.0 6.788750 28.512750 12.219750
374 1 0.0 6.788750 31.228250 14.935250
375 1 0.0 9.504250 28.512750 14.935250
376 1 0.0 9.504250 31.228250 12.219750
377 1 0.0 5.431000 27.155000 16.293000
378 1 0.0 5.431000 29.870500 19.008500
379 1 0.0 8.146500 27.155000 19.008500
380 1 0.0 8.146500 29.870500 16.293000
381 1 0.0 6.788750 28.512750 17.650750
382 1 0.0 6.788750 31.228250 20.366250
383 1 0.0 9.504250 28.512750 20.366250
384 1 0.0 9.504250 31.228250 17.650750
385 1 0.0 10.862000 0.000000 0.000000
386 1 0.0 10.862000 2.715500 2.715500
387 1 0.0 13.577500 0.000000 2.715500
388 1 0.0 13.577500 2.715500 0.000000
389 1 0.0 12.219750 1.357750 1.357750
390 1 0.0 12.219750 4.073250 4.073250
391 1 0.0 14.935250 1.357750 4.073250
392 1 0.0 14.935250 4.073250 1.357750
393 1 0.0 10.862000 0.000000 5.431000
394 1 0.0 10.862000 2.715500 8.146500
395 1 0.0 13.577500 0.000000 8.146500
396 1 0.0 13.577500 2.715500 5.431000
397 1 0.0 12.219750 1.357750 6.788750
398 1 0.0 12.219750 4.073250 9.504250
399 1 0.0 14.935250 1.357750 9.504250
400 1 0.0 14.935250 4.073250 6.788750
401 1 0.0 10.862000 0.000000 10.862000
402 1 0.0 10.862000 2.715500 13.577500
403 1 0.0 13.577500 0.000000 13.577500
404 1 0.0 13.577500 2.715500 10.862000
405 1 0.0 12.219750 1.357750 12.219750
406 1 0.0 12.219750 4.073250 14.935250
407 1 0.0 14.935250 1.357750 14.935250
408 1 0.0 14.935250 4.073250 12.219750
409 1 0.0 10.862000 0.000000 16.293000
410 1 0.0 10.862000 2.715500 19.008500
411 1 0.0 13.577500 0.000000 19.008500
412 1 0.0 13.577500 2.715500 16.293000
413 1 0.0 12.219750 1.357750 17.650750
414 1 0.0 12.219750 4.073250 20.366250
415 1 0.0 14.935250 1.357750 20.366250
416 1 0.0 14.935250 4.073250 17.650750
417 1 0.0 10.862000 5.431000 0.000000
418 1 0.0 10.862000 8.146500 2.715500
419 1 0.0 13.577500 5.431000 2.715500
420 1 0.0 13.577500 8.146500 0.000000
421 1 0.0 12.219750 6.788750 1.357750
422 1 0.0 12.219750 9.504250 4.073250
423 1 0.0 14.935250 6.788750 4.073250
424 1 0.0 14.935250 9.504250 1.357750
425 1 0.0 10.862000 5.431000 5.431000
426 1 0.0 10.862000 8.146500 8.146500
427 1 0.0 13.577500 5.431000 8.146500
428 1 0.0 13.577500 8.146500 5.431000
429 1 0.0 12.219750 6.788750 6.788750
430 1 0.0 12.219750 9.504250 9.504250
431 1 0.0 14.935250 6.788750 9.504250
432 1 0.0 14.935250 9.504250 6.788750
433 1 0.0 10.862000 5.431000 10.862000
434 1 0.0 10.862000 8.146500 13.577500
435 1 0.0 13.577500 5.431000 13.577500
436 1 0.0 13.577500 8.146500 10.862000
437 1 0.0 12.219750 6.788750 12.219750
438 1 0.0 12.219750 9.504250 14.935250
439 1 0.0 14.935250 6.788750 14.935250
440 1 0.0 14.935250 9.504250 12.219750
441 1 0.0 10.862000 5.431000 16.293000
442 1 0.0 10.862000 8.146500 19.008500
443 1 0.0 13.577500 5.431000 19.008500
444 1 0.0 13.577500 8.146500 16.293000
445 1 0.0 12.219750 6.788750 17.650750
446 1 0.0 12.219750 9.504250 20.366250
447 1 0.0 14.935250 6.788750 20.366250
448 1 0.0 14.935250 9.504250 17.650750
449 1 0.0 10.862000 10.862000 0.000000
450 1 0.0 10.862000 13.577500 2.715500
451 1 0.0 13.577500 10.862000 2.715500
452 1 0.0 13.577500 13.577500 0.000000
453 1 0.0 12.219750 12.219750 1.357750
454 1 0.0 12.219750 14.935250 4.073250
455 1 0.0 14.935250 12.219750 4.073250
456 1 0.0 14.935250 14.935250 1.357750
457 1 0.0 10.862000 10.862000 5.431000
458 1 0.0 10.862000 13.577500 8.146500
459 1 0.0 13.577500 10.862000 8.146500
460 1 0.0 13.577500 13.577500 5.431000
461 1 0.0 12.219750 12.219750 6.788750
462 1 0.0 12.219750 14.935250 9.504250
463 1 0.0 14.935250 12.219750 9.504250
464 1 0.0 14.935250 14.935250 6.788750
465 1 0.0 10.862000 10.862000 10.862000
466 1 0.0 10.862000 13.577500 13.577500
467 1 0.0 13.577500 10.862000 13.577500
468 1 0.0 13.577500 13.577500 10.862000
469 1 0.0 12.219750 12.219750 12.219750
470 1 0.0 12.219750 14.935250 14.935250
471 1 0.0 14.935250 12.219750 14.935250
472 1 0.0 14.935250 14.935250 12.219750
473 1 0.0 10.862000 10.862000 16.293000
474 1 0.0 10.862000 13.577500 19.008500
475 1 0.0 13.577500 10.862000 19.008500
476 1 0.0 13.577500 13.577500 16.293000
477 1 0.0 12.219750 12.219750 17.650750
478 1 0.0 12.219750 14.935250 20.366250
479 1 0.0 14.935250 12.219750 20.366250
480 1 0.0 14.935250 14.935250 17.650750
481 1 0.0 10.862000 16.293000 0.000000
482 1 0.0 10.862000 19.008500 2.715500
483 1 0.0 13.577500 16.293000 2.715500
484 1 0.0 13.577500 19.008500 0.000000
485 1 0.0 12.219750 17.650750 1.357750
486 1 0.0 12.219750 20.366250 4.073250
487 1 0.0 14.935250 17.650750 4.073250
488 1 0.0 14.935250 20.366250 1.357750
489 1 0.0 10.862000 16.293000 5.431000
490 1 0.0 10.862000 19.008500 8.146500
491 1 0.0 13.577500 16.293000 8.146500
492 1 0.0 13.577500 19.008500 5.431000
493 1 0.0 12.219750 17.650750 6.788750
494 1 0.0 12.219750 20.366250 9.504250
495 1 0.0 14.935250 17.650750 9.504250
496 1 0.0 14.935250 20.366250 6.788750
497 1 0.0 10.862000 16.293000 10.862000
498 1 0.0 10.862000 19.008500 13.577500
499 1 0.0 13.577500 16.293000 13.577500
500 1 0.0 13.577500 19.008500 10.862000
501 1 0.0 12.219750 17.650750 12.219750
502 1 0.0 12.219750 20.366250 14.935250
503 1 0.0 14.935250 17.650750 14.935250
504 1 0.0 14.935250 20.366250 12.219750
505 1 0.0 10.862000 16.293000 16.293000
506 1 0.0 10.862000 19.008500 19.008500
507 1 0.0 13.577500 16.293000 19.008500
508 1 0.0 13.577500 19.008500 16.293000
509 1 0.0 12.219750 17.650750 17.650750
510 1 0.0 12.219750 20.366250 20.366250
511 1 0.0 14.935250 17.650750 20.366250
512 1 0.0 14.935250 20.366250 17.650750
513 1 0.0 10.862000 21.724000 0.000000
514 1 0.0 10.862000 24.439500 2.715500
515 1 0.0 13.577500 21.724000 2.715500
516 1 0.0 13.577500 24.439500 0.000000
517 1 0.0 12.219750 23.081750 1.357750
518 1 0.0 12.219750 25.797250 4.073250
519 1 0.0 14.935250 23.081750 4.073250
520 1 0.0 14.935250 25.797250 1.357750
521 1 0.0 10.862000 21.724000 5.431000
522 1 0.0 10.862000 24.439500 8.146500
523 1 0.0 13.577500 21.724000 8.146500
524 1 0.0 13.577500 24.439500 5.431000
525 1 0.0 12.219750 23.081750 6.788750
526 1 0.0 12.219750 25.797250 9.504250
527 1 0.0 14.935250 23.081750 9.504250
528 1 0.0 14.935250 25.797250 6.788750
529 1 0.0 10.862000 21.724000 10.862000
530 1 0.0 10.862000 24.439500 13.577500
531 1 0.0 13.577500 21.724000 13.577500
532 1 0.0 13.577500 24.439500 10.862000
533 1 0.0 12.219750 23.081750 12.219750
534 1 0.0 12.219750 25.797250 14.935250
535 1 0.0 14.935250 23.081750 14.935250
536 1 0.0 14.935250 25.797250 12.219750
537 1 0.0 10.862000 21.724000 16.293000
538 1 0.0 10.862000 24.439500 19.008500
539 1 0.0 13.577500 21.724000 19.008500
540 1 0.0 13.577500 24.439500 16.293000
541 1 0.0 12.219750 23.081750 17.650750
542 1 0.0 12.219750 25.797250 20.366250
543 1 0.0 14.935250 23.081750 20.366250
544 1 0.0 14.935250 25.797250 17.650750
545 1 0.0 10.862000 27.155000 0.000000
546 1 0.0 10.862000 29.870500 2.715500
547 1 0.0 13.577500 27.155000 2.715500
548 1 0.0 13.577500 29.870500 0.000000
549 1 0.0 12.219750 28.512750 1.357750
550 1 0.0 12.219750 31.228250 4.073250
551 1 0.0 14.935250 28.512750 4.073250
552 1 0.0 14.935250 31.228250 1.357750
553 1 0.0 10.862000 27.155000 5.431000
554 1 0.0 10.862000 29.870500 8.146500
555 1 0.0 13.577500 27.155000 8.146500
556 1 0.0 13.577500 29.870500 5.431000
557 1 0.0 12.219750 28.512750 6.788750
558 1 0.0 12.219750 31.228250 9.504250
559 1 0.0 14.935250 28.512750 9.504250
560 1 0.0 14.935250 31.228250 6.788750
561 1 0.0 10.862000 27.155000 10.862000
562 1 0.0 10.862000 29.870500 13.577500
563 1 0.0 13.577500 27.155000 13.577500
564 1 0.0 13.577500 29.870500 10.862000
565 1 0.0 12.219750 28.512750 12.219750
566 1 0.0 12.219750 31.228250 14.935250
567 1 0.0 14.935250 28.512750 14.935250
568 1 0.0 14.935250 31.228250 12.219750
569 1 0.0 10.862000 27.155000 16.293000
570 1 0.0 10.862000 29.870500 19.008500
571 1 0.0 13.577500 27.155000 19.008500
572 1 0.0 13.577500 29.870500 16.293000
573 1 0.0 12.219750 28.512750 17.650750
574 1 0.0 12.219750 31.228250 20.366250
575 1 0.0 14.935250 28.512750 20.366250
576 1 0.0 14.935250 31.228250 17.650750
577 1 0.0 16.293000 0.000000 0.000000
578 1 0.0 16.293000 2.715500 2.715500
579 1 0.0 19.008500 0.000000 2.715500
580 1 0.0 19.008500 2.715500 0.000000
581 1 0.0 17.650750 1.357750 1.357750
582 1 0.0 17.650750 4.073250 4.073250
583 1 0.0 20.366250 1.357750 4.073250
584 1 0.0 20.366250 4.073250 1.357750
585 1 0.0 16.293000 0.000000 5.431000
586 1 0.0 16.293000 2.715500 8.146500
587 1 0.0 19.008500 0.000000 8.146500
588 1 0.0 19.008500 2.715500 5.431000
589 1 0.0 17.650750 1.357750 6.788750
590 1 0.0 17.650750 4.073250 9.504250
591 1 0.0 20.366250 1.357750 9.504250
592 1 0.0 20.366250 4.073250 6.788750
593 1 0.0 16.293000 0.000000 10.862000
594 1 0.0 16.293000 2.715500 13.577500
595 1 0.0 19.008500 0.000000 13.577500
596 1 0.0 19.008500 2.715500 10.862000
597 1 0.0 17.650750 1.357750 12.219750
598 1 0.0 17.650750 4.073250 14.935250
599 1 0.0 20.366250 1.357750 14.935250
600 1 0.0 20.366250 4.073250 12.219750
601 1 0.0 16.293000 0.000000 16.293000
602 1 0.0 16.293000 2.715500 19.008500
603 1 0.0 19.008500 0.000000 19.008500
604 1 0.0 19.008500 2.715500 16.293000
605 1 0.0 17.650750 1.357750 17.650750
606 1 0.0 17.650750 4.073250 20.366250
607 1 0.0 20.366250 1.357750 20.366250
608 1 0.0 20.366250 4.073250 17.650750
609 1 0.0 16.293000 5.431000 0.000000
610 1 0.0 16.293000 8.146500 2.715500
611 1 0.0 19.008500 5.431000 2.715500
612 1 0.0 19.008500 8.146500 0.000000
613 1 0.0 17.650750 6.788750 1.357750
614 1 0.0 17.650750 9.504250 4.073250
615 1 0.0 20.366250 6.788750 4.073250
616 1 0.0 20.366250 9.504250 1.357750
617 1 0.0 16.293000 5.431000 5.431000
618 1 0.0 16.293000 8.146500 8.146500
619 1 0.0 19.008500 5.431000 8.146500
620 1 0.0 19.008500 8.146500 5.431000
621 1 0.0 17.650750 6.788750 6.788750
622 1 0.0 17.650750 9.504250 9.504250
623 1 0.0 20.366250 6.788750 9.504250
624 1 0.0 20.366250 9.504250 6.788750
625 1 0.0 16.293000 5.431000 10.862000
626 1 0.0 16.293000 8.146500 13.577500
627 1 0.0 19.008500 5.431000 13.577500
628 1 0.0 19.008500 8.146500 10.862000
629 1 0.0 17.650750 6.788750 12.219750
630 1 0.0 17.650750 9.504250 14.935250
631 1 0.0 20.366250 6.788750 14.935250
632 1 0.0 20.366250 9.504250 12.219750
633 1 0.0 16.293000 5.431000 16.293000
634 1 0.0 16.293000 8.146500 19.008500
635 1 0.0 19.008500 5.431000 19.008500
636 1 0.0 19.008500 8.146500 16.293000
637 1 0.0 17.650750 6.788750 17.650750
638 1 0.0 17.650750 9.504250 20.366250
639 1 0.0 20.366250 6.788750 20.366250
640 1 0.0 20.366250 9.504250 17.650750
641 1 0.0 16.293000 10.862000 0.000000
642 1 0.0 16.293000 13.577500 2.715500
643 1 0.0 19.008500 10.862000 2.715500
644 1 0.0 19.008500 13.577500 0.000000
645 1 0.0 17.650750 12.219750 1.357750
646 1 0.0 17.650750 14.935250 4.073250
647 1 0.0 20.366250 12.219750 4.073250
648 1 0.0 20.366250 14.935250 1.357750
649 1 0.0 16.293000 10.862000 5.431000
650 1 0.0 16.293000 13.577500 8.146500
651 1 0.0 19.008500 10.862000 8.146500
652 1 0.0 19.008500 13.577500 5.431000
653 1 0.0 17.650750 12.219750 6.788750
654 1 0.0 17.650750 14.935250 9.504250
655 1 0.0 20.366250 12.219750 9.504250
656 1 0.0 20.366250 14.935250 6.788750
657 1 0.0 16.293000 10.862000 10.862000
658 1 0.0 16.293000 13.577500 13.577500
659 1 0.0 19.008500 10.862000 13.577500
660 1 0.0 19.008500 13.577500 10.862000
661 1 0.0 17.650750 12.219750 12.219750
662 1 0.0 17.650750 14.935250 14.935250
663 1 0.0 20.366250 12.219750 14.935250
664 1 0.0 20.366250 14.935250 12.219750
665 1 0.0 16.293000 10.862000 16.293000
666 1 0.0 16.293000 13.577500 19.008500
667 1 0.0 19.008500 10.862000 19.008500
668 1 0.0 19.008500 13.577500 16.293000
669 1 0.0 17.650750 12.219750 17.650750
670 1 0.0 17.650750 14.935250 20.366250
671 1 0.0 20.366250 12.219750 20.366250
672 1 0.0 20.366250 14.935250 17.650750
673 1 0.0 16.293000 16.293000 0.000000
674 1 0.0 16.293000 19.008500 2.715500
675 1 0.0 19.008500 16.293000 2.715500
676 1 0.0 19.008500 19.008500 0.000000
677 1 0.0 17.650750 17.650750 1.357750
678 1 0.0 17.650750 20.366250 4.073250
679 1 0.0 20.366250 17.650750 4.073250
680 1 0.0 20.366250 20.366250 1.357750
681 1 0.0 16.293000 16.293000 5.431000
682 1 0.0 16.293000 19.008500 8.146500
683 1 0.0 19.008500 16.293000 8.146500
684 1 0.0 19.008500 19.008500 5.431000
685 1 0.0 17.650750 17.650750 6.788750
686 1 0.0 17.650750 20.366250 9.504250
687 1 0.0 20.366250 17.650750 9.504250
688 1 0.0 20.366250 20.366250 6.788750
689 1 0.0 16.293000 16.293000 10.862000
690 1 0.0 16.293000 19.008500 13.577500
691 1 0.0 19.008500 16.293000 13.577500
692 1 0.0 19.008500 19.008500 10.862000
693 1 0.0 17.650750 17.650750 12.219750
694 1 0.0 17.650750 20.366250 14.935250
695 1 0.0 20.366250 17.650750 14.935250
696 1 0.0 20.366250 20.366250 12.219750
697 1 0.0 16.293000 16.293000 16.293000
698 1 0.0 16.293000 19.008500 19.008500
699 1 0.0 19.008500 16.293000 19.008500
700 1 0.0 19.008500 19.008500 16.293000
701 1 0.0 17.650750 17.650750 17.650750
702 1 0.0 17.650750 20.366250 20.366250
703 1 0.0 20.366250 17.650750 20.366250
704 1 0.0 20.366250 20.366250 17.650750
705 1 0.0 16.293000 21.724000 0.000000
706 1 0.0 16.293000 24.439500 2.715500
707 1 0.0 19.008500 21.724000 2.715500
708 1 0.0 19.008500 24.439500 0.000000
709 1 0.0 17.650750 23.081750 1.357750
710 1 0.0 17.650750 25.797250 4.073250
711 1 0.0 20.366250 23.081750 4.073250
712 1 0.0 20.366250 25.797250 1.357750
713 1 0.0 16.293000 21.724000 5.431000
714 1 0.0 16.293000 24.439500 8.146500
715 1 0.0 19.008500 21.724000 8.146500
716 1 0.0 19.008500 24.439500 5.431000
717 1 0.0 17.650750 23.081750 6.788750
718 1 0.0 17.650750 25.797250 9.504250
719 1 0.0 20.366250 23.081750 9.504250
720 1 0.0 20.366250 25.797250 6.788750
721 1 0.0 16.293000 21.724000 10.862000
722 1 0.0 16.293000 24.439500 13.577500
723 1 0.0 19.008500 21.724000 13.577500
724 1 0.0 19.008500 24.439500 10.862000
725 1 0.0 17.650750 23.081750 12.219750
726 1 0.0 17.650750 25.797250 14.935250
727 1 0.0 20.366250 23.081750 14.935250
728 1 0.0 20.366250 25.797250 12.219750
729 1 0.0 16.293000 21.724000 16.293000
730 1 0.0 16.293000 24.439500 19.008500
731 1 0.0 19.008500 21.724000 19.008500
732 1 0.0 19.008500 24.439500 16.293000
733 1 0.0 17.650750 23.081750 17.650750
734 1 0.0 17.650750 25.797250 20.366250
735 1 0.0 20.366250 23.081750 20.366250
736 1 0.0 20.366250 25.797250 17.650750
737 1 0.0 16.293000 27.155000 0.000000
738 1 0.0 16.293000 29.870500 2.715500
739 1 0.0 19.008500 27.155000 2.715500
740 1 0.0 19.008500 29.870500 0.000000
741 1 0.0 17.650750 28.512750 1.357750
742 1 0.0 17.650750 31.228250 4.073250
743 1 0.0 20.366250 28.512750 4.073250
744 1 0.0 20.366250 31.228250 1.357750
745 1 0.0 16.293000 27.155000 5.431000
746 1 0.0 16.293000 29.870500 8.146500
747 1 0.0 19.008500 27.155000 8.146500
748 1 0.0 19.008500 29.870500 5.431000
749 1 0.0 17.650750 28.512750 6.788750
750 1 0.0 17.650750 31.228250 9.504250
751 1 0.0 20.366250 28.512750 9.504250
752 1 0.0 20.366250 31.228250 6.788750
753 1 0.0 16.293000 27.155000 10.862000
754 1 0.0 16.293000 29.870500 13.577500
755 1 0.0 19.008500 27.155000 13.577500
756 1 0.0 19.008500 29.870500 10.862000
757 1 0.0 17.650750 28.512750 12.219750
758 1 0.0 17.650750 31.228250 14.935250
759 1 0.0 20.366250 28.512750 14.935250
760 1 0.0 20.366250 31.228250 12.219750
761 1 0.0 16.293000 27.155000 16.293000
762 1 0.0 16.293000 29.870500 19.008500
763 1 0.0 19.008500 27.155000 19.008500
764 1 0.0 19.008500 29.870500 16.293000
765 1 0.0 17.650750 28.512750 17.650750
766 1 0.0 17.650750 31.228250 20.366250
767 1 0.0 20.366250 28.512750 20.366250
768 1 0.0 20.366250 31.228250 17.650750
769 1 0.0 21.724000 0.000000 0.000000
770 1 0.0 21.724000 2.715500 2.715500
771 1 0.0 24.439500 0.000000 2.715500
772 1 0.0 24.439500 2.715500 0.000000
773 1 0.0 23.081750 1.357750 1.357750
774 1 0.0 23.081750 4.073250 4.073250
775 1 0.0 25.797250 1.357750 4.073250